nqpoint: 101    
npath: 1      
segment_nqpoint:
- 101
reciprocal_lattice:
- [   0.22841840,   0.13187743,   0.00000000 ] # a*
- [   0.00000000,   0.26375485,   0.00000000 ] # b*
- [   0.00000000,   0.00000000,   0.22440600 ] # c*
natom: 3      
lattice:
- [     4.377930990000000,     0.000000000000000,     0.000000000000000 ] # a
- [    -2.188965500000000,     3.791399450000000,     0.000000000000000 ] # b
- [     0.000000000000000,     0.000000000000000,     4.456208890000000 ] # c
points:
- symbol: Li # 1
  coordinates: [  0.000000000000000,  0.000000000000000,  0.500000000000000 ]
  mass: 6.941000
- symbol: P  # 2
  coordinates: [  0.333333330000000,  0.666666670000000,  0.500000000000000 ]
  mass: 30.973762
- symbol: Ba # 3
  coordinates: [  0.666666670000000,  0.333333330000000,  0.000000000000000 ]
  mass: 137.327000

phonon:
- q-position: [    0.0000000,    0.0000000,    0.0000000 ]
  distance:    0.0000000
  band:
  - # 1
    frequency:   -0.0173706295
    eigenvector:
    - # atom 1
      - [ -0.00066248673113,  0.00000000000000 ]
      - [ -0.19824239408648,  0.00000000000000 ]
      - [ -0.00000000000018,  0.00000000000000 ]
    - # atom 2
      - [ -0.00141132650807,  0.00000000000000 ]
      - [ -0.42232505596229,  0.00000000000000 ]
      - [ -0.00000000000037,  0.00000000000000 ]
    - # atom 3
      - [ -0.00295580469755,  0.00000000000000 ]
      - [ -0.88449439386619,  0.00000000000000 ]
      - [ -0.00000000000079,  0.00000000000000 ]
  - # 2
    frequency:   -0.0173706295
    eigenvector:
    - # atom 1
      - [ -0.19824239408648,  0.00000000000000 ]
      - [  0.00066248673113,  0.00000000000000 ]
      - [ -0.00000000000084,  0.00000000000000 ]
    - # atom 2
      - [ -0.42232505596229,  0.00000000000000 ]
      - [  0.00141132650808,  0.00000000000000 ]
      - [ -0.00000000000176,  0.00000000000000 ]
    - # atom 3
      - [ -0.88449439386619,  0.00000000000000 ]
      - [  0.00295580469755,  0.00000000000000 ]
      - [ -0.00000000000371,  0.00000000000000 ]
  - # 3
    frequency:   -0.0020832708
    eigenvector:
    - # atom 1
      - [  0.00000000000083,  0.00000000000000 ]
      - [  0.00000000000017,  0.00000000000000 ]
      - [ -0.19912907487419,  0.00000000000000 ]
    - # atom 2
      - [  0.00000000000177,  0.00000000000000 ]
      - [  0.00000000000037,  0.00000000000000 ]
      - [ -0.42028658438261,  0.00000000000000 ]
    - # atom 3
      - [  0.00000000000371,  0.00000000000000 ]
      - [  0.00000000000077,  0.00000000000000 ]
      - [ -0.88527216070977,  0.00000000000000 ]
  - # 4
    frequency:    2.5966155633
    eigenvector:
    - # atom 1
      - [ -0.00000000000000,  0.00000000000000 ]
      - [ -0.00000000000000,  0.00000000000000 ]
      - [  0.07383223109119,  0.00000000000000 ]
    - # atom 2
      - [ -0.00000000000000,  0.00000000000000 ]
      - [ -0.00000000000000,  0.00000000000000 ]
      - [  0.89436181205191,  0.00000000000000 ]
    - # atom 3
      - [ -0.00000000000000,  0.00000000000000 ]
      - [  0.00000000000000,  0.00000000000000 ]
      - [ -0.44120941829851,  0.00000000000000 ]
  - # 5
    frequency:    4.1751624156
    eigenvector:
    - # atom 1
      - [  0.00804447938915,  0.00000000000000 ]
      - [ -0.29960324439137,  0.00000000000000 ]
      - [ -0.00000000000000,  0.00000000000000 ]
    - # atom 2
      - [  0.02236015094004,  0.00000000000000 ]
      - [ -0.83276660211891,  0.00000000000000 ]
      - [ -0.00000000000000,  0.00000000000000 ]
    - # atom 3
      - [ -0.01247945597723,  0.00000000000000 ]
      - [  0.46477656516363,  0.00000000000000 ]
      - [  0.00000000000000,  0.00000000000000 ]
  - # 6
    frequency:    4.1751624156
    eigenvector:
    - # atom 1
      - [ -0.29960324439137,  0.00000000000000 ]
      - [ -0.00804447938915,  0.00000000000000 ]
      - [ -0.00000000000000,  0.00000000000000 ]
    - # atom 2
      - [ -0.83276660211891,  0.00000000000000 ]
      - [ -0.02236015094004,  0.00000000000000 ]
      - [ -0.00000000000000,  0.00000000000000 ]
    - # atom 3
      - [  0.46477656516363,  0.00000000000000 ]
      - [  0.01247945597723,  0.00000000000000 ]
      - [ -0.00000000000000,  0.00000000000000 ]
  - # 7
    frequency:    9.7895950496
    eigenvector:
    - # atom 1
      - [  0.00000000000000,  0.00000000000000 ]
      - [  0.00000000000000,  0.00000000000000 ]
      - [  0.97718801322563,  0.00000000000000 ]
    - # atom 2
      - [  0.00000000000000,  0.00000000000000 ]
      - [ -0.00000000000000,  0.00000000000000 ]
      - [ -0.15321924203968,  0.00000000000000 ]
    - # atom 3
      - [ -0.00000000000000,  0.00000000000000 ]
      - [  0.00000000000000,  0.00000000000000 ]
      - [ -0.14706274401404,  0.00000000000000 ]
  - # 8
    frequency:   11.4401137213
    eigenvector:
    - # atom 1
      - [  0.40776859593466, -0.00000000000000 ]
      - [  0.83940304310217,  0.00000000000000 ]
      - [ -0.00000000000000,  0.00000000000000 ]
    - # atom 2
      - [ -0.15610929281456,  0.00000000000000 ]
      - [ -0.32135533915923,  0.00000000000000 ]
      - [  0.00000000000000,  0.00000000000000 ]
    - # atom 3
      - [ -0.01685500436251,  0.00000000000000 ]
      - [ -0.03469649721544,  0.00000000000000 ]
      - [  0.00000000000000,  0.00000000000000 ]
  - # 9
    frequency:   11.4401137213
    eigenvector:
    - # atom 1
      - [ -0.83940304310217,  0.00000000000000 ]
      - [  0.40776859593466,  0.00000000000000 ]
      - [ -0.00000000000000,  0.00000000000000 ]
    - # atom 2
      - [  0.32135533915923,  0.00000000000000 ]
      - [ -0.15610929281456,  0.00000000000000 ]
      - [  0.00000000000000,  0.00000000000000 ]
    - # atom 3
      - [  0.03469649721544,  0.00000000000000 ]
      - [ -0.01685500436251,  0.00000000000000 ]
      - [  0.00000000000000,  0.00000000000000 ]

- q-position: [    0.0000000,    0.0000000,    0.0100000 ]
  distance:    0.0022441
  band:
  - # 1
    frequency:    0.0462803658
    eigenvector:
    - # atom 1
      - [  0.19822021412059,  0.00000000000000 ]
      - [ -0.00122907505841,  0.00000986913698 ]
      - [  0.00000000000001,  0.00000000000000 ]
    - # atom 2
      - [  0.42230764212662,  0.00000000000000 ]
      - [ -0.00261854116250,  0.00002102617025 ]
      - [  0.00000000000001,  0.00000000000001 ]
    - # atom 3
      - [  0.88449225788025, -0.00000000000000 ]
      - [ -0.00548434163660,  0.00004403776522 ]
      - [  0.00000000000002,  0.00000000000002 ]
  - # 2
    frequency:    0.0462803658
    eigenvector:
    - # atom 1
      - [  0.00122911468101,  0.00000000000000 ]
      - [  0.19821382415548, -0.00159160286327 ]
      - [ -0.00000000000002, -0.00000000000001 ]
    - # atom 2
      - [  0.00261862557834, -0.00000000000000 ]
      - [  0.42229402832284, -0.00339090569229 ]
      - [ -0.00000000000004, -0.00000000000002 ]
    - # atom 3
      - [  0.00548451843937, -0.00000000000000 ]
      - [  0.88446374477075, -0.00710200226765 ]
      - [ -0.00000000000008, -0.00000000000004 ]
  - # 3
    frequency:    0.0846278254
    eigenvector:
    - # atom 1
      - [  0.00000000000001,  0.00000000000000 ]
      - [ -0.00000000000002, -0.00000000000000 ]
      - [ -0.16634491037914, -0.10936176737684 ]
    - # atom 2
      - [  0.00000000000001,  0.00000000000000 ]
      - [ -0.00000000000004, -0.00000000000000 ]
      - [ -0.35125224879437, -0.23092721403791 ]
    - # atom 3
      - [  0.00000000000003, -0.00000000000000 ]
      - [ -0.00000000000009, -0.00000000000001 ]
      - [ -0.73970569522521, -0.48631197662833 ]
  - # 4
    frequency:    2.6061771704
    eigenvector:
    - # atom 1
      - [ -0.00000000000000,  0.00000000000000 ]
      - [ -0.00000000000000, -0.00000000000000 ]
      - [  0.01143383360137, -0.07306116192989 ]
    - # atom 2
      - [ -0.00000000000000,  0.00000000000000 ]
      - [ -0.00000000000000, -0.00000000000000 ]
      - [  0.13827346908457, -0.88355495344824 ]
    - # atom 3
      - [  0.00000000000000, -0.00000000000000 ]
      - [  0.00000000000000, -0.00000000000000 ]
      - [ -0.06823095633311,  0.43598963594208 ]
  - # 5
    frequency:    4.1747625573
    eigenvector:
    - # atom 1
      - [  0.25460440396038,  0.00000000000000 ]
      - [ -0.15815702746245, -0.00001466950884 ]
      - [ -0.00000000000000, -0.00000000000000 ]
    - # atom 2
      - [  0.70765210034244, -0.00000000000000 ]
      - [ -0.43958451199899, -0.00004077269907 ]
      - [ -0.00000000000000,  0.00000000000000 ]
    - # atom 3
      - [ -0.39493237651147,  0.00000000000000 ]
      - [  0.24532698471097,  0.00002275476740 ]
      - [ -0.00000000000000,  0.00000000000000 ]
  - # 6
    frequency:    4.1747625573
    eigenvector:
    - # atom 1
      - [ -0.15815702814277,  0.00000000000000 ]
      - [ -0.25460440286519, -0.00002361527401 ]
      - [ -0.00000000000000, -0.00000000000000 ]
    - # atom 2
      - [ -0.43958451388988,  0.00000000000000 ]
      - [ -0.70765209729845, -0.00006563672109 ]
      - [ -0.00000000000000,  0.00000000000000 ]
    - # atom 3
      - [  0.24532698576625, -0.00000000000000 ]
      - [  0.39493237481265,  0.00003663108784 ]
      - [ -0.00000000000000, -0.00000000000000 ]
  - # 7
    frequency:    9.7898732725
    eigenvector:
    - # atom 1
      - [  0.00000000000000,  0.00000000000000 ]
      - [ -0.00000000000000,  0.00000000000000 ]
      - [  0.28893300710310,  0.93349795184572 ]
    - # atom 2
      - [ -0.00000000000000, -0.00000000000000 ]
      - [ -0.00000000000000, -0.00000000000000 ]
      - [ -0.04533185148981, -0.14646021561673 ]
    - # atom 3
      - [  0.00000000000000,  0.00000000000000 ]
      - [  0.00000000000000, -0.00000000000000 ]
      - [ -0.04344919959626, -0.14037765791838 ]
  - # 8
    frequency:   11.4400910827
    eigenvector:
    - # atom 1
      - [ -0.73774261942546,  0.00000000000000 ]
      - [ -0.57149454538723,  0.00000015813928 ]
      - [  0.00000000000000, -0.00000000000000 ]
    - # atom 2
      - [  0.28244069556337, -0.00000000000000 ]
      - [  0.21879353674259, -0.00000006054275 ]
      - [ -0.00000000000000,  0.00000000000000 ]
    - # atom 3
      - [  0.03047922190867, -0.00000000000000 ]
      - [  0.02361082118587, -0.00000000653339 ]
      - [ -0.00000000000000, -0.00000000000000 ]
  - # 9
    frequency:   11.4400910827
    eigenvector:
    - # atom 1
      - [  0.57149454538725,  0.00000000000000 ]
      - [ -0.73774261942543,  0.00000020414208 ]
      - [  0.00000000000000, -0.00000000000000 ]
    - # atom 2
      - [ -0.21879353674260,  0.00000000000000 ]
      - [  0.28244069556336, -0.00000007815467 ]
      - [ -0.00000000000000,  0.00000000000000 ]
    - # atom 3
      - [ -0.02361082118587, -0.00000000000000 ]
      - [  0.03047922190867, -0.00000000843396 ]
      - [ -0.00000000000000,  0.00000000000000 ]

- q-position: [    0.0000000,    0.0000000,    0.0200000 ]
  distance:    0.0044881
  band:
  - # 1
    frequency:    0.0973461564
    eigenvector:
    - # atom 1
      - [  0.13887785888999, -0.00000000000000 ]
      - [  0.14135923654869,  0.00022191901060 ]
      - [ -0.00000000000001,  0.00000000000000 ]
    - # atom 2
      - [  0.29594156932320,  0.00000000000000 ]
      - [  0.30122925739868,  0.00047289798953 ]
      - [ -0.00000000000003,  0.00000000000000 ]
    - # atom 3
      - [  0.61990083141593, -0.00000000000000 ]
      - [  0.63097680915625,  0.00099056667692 ]
      - [ -0.00000000000006,  0.00000000000001 ]
  - # 2
    frequency:    0.0973461564
    eigenvector:
    - # atom 1
      - [  0.14135941074324,  0.00000000000000 ]
      - [ -0.13887768775341, -0.00021802324215 ]
      - [  0.00000000000002,  0.00000000000000 ]
    - # atom 2
      - [  0.30122962859830, -0.00000000000000 ]
      - [ -0.29594120463995, -0.00046459630749 ]
      - [  0.00000000000004,  0.00000000000000 ]
    - # atom 3
      - [  0.63097758669809, -0.00000000000000 ]
      - [ -0.61990006752377, -0.00097317736721 ]
      - [  0.00000000000008,  0.00000000000000 ]
  - # 3
    frequency:    0.1694366759
    eigenvector:
    - # atom 1
      - [  0.00000000000000,  0.00000000000000 ]
      - [ -0.00000000000002, -0.00000000000001 ]
      - [ -0.17095927094154, -0.10167597969078 ]
    - # atom 2
      - [  0.00000000000001,  0.00000000000000 ]
      - [ -0.00000000000004, -0.00000000000002 ]
      - [ -0.36148055579006, -0.21498623295891 ]
    - # atom 3
      - [  0.00000000000002,  0.00000000000000 ]
      - [ -0.00000000000008, -0.00000000000005 ]
      - [ -0.76079798701165, -0.45247549460267 ]
  - # 4
    frequency:    2.6345968827
    eigenvector:
    - # atom 1
      - [ -0.00000000000000,  0.00000000000000 ]
      - [ -0.00000000000000, -0.00000000000000 ]
      - [ -0.01931412412388, -0.07175480900472 ]
    - # atom 2
      - [ -0.00000000000000,  0.00000000000000 ]
      - [ -0.00000000000000, -0.00000000000000 ]
      - [ -0.23240712407287, -0.86342661423424 ]
    - # atom 3
      - [  0.00000000000000, -0.00000000000000 ]
      - [  0.00000000000000, -0.00000000000000 ]
      - [  0.11476447946646,  0.42636690392078 ]
  - # 5
    frequency:    4.1735627414
    eigenvector:
    - # atom 1
      - [  0.01379629128249,  0.00000000000000 ]
      - [ -0.29945849876679, -0.00143447531564 ]
      - [ -0.00000000000000, -0.00000000000000 ]
    - # atom 2
      - [  0.03833959898626, -0.00000000000000 ]
      - [ -0.83218877600263, -0.00398637628267 ]
      - [  0.00000000000000,  0.00000000000000 ]
    - # atom 3
      - [ -0.02139419696350,  0.00000000000000 ]
      - [  0.46437654684377,  0.00222447082434 ]
      - [ -0.00000000000000, -0.00000000000000 ]
  - # 6
    frequency:    4.1735627414
    eigenvector:
    - # atom 1
      - [ -0.29946193448098,  0.00000000000000 ]
      - [ -0.01379613299822, -0.00006608666082 ]
      - [  0.00000000000000, -0.00000000000000 ]
    - # atom 2
      - [ -0.83219832377903,  0.00000000000000 ]
      - [ -0.03833915911765, -0.00018365341977 ]
      - [  0.00000000000000,  0.00000000000000 ]
    - # atom 3
      - [  0.46438187467750, -0.00000000000000 ]
      - [  0.02139395150878,  0.00010248196485 ]
      - [ -0.00000000000000, -0.00000000000000 ]
  - # 7
    frequency:    9.7907081739
    eigenvector:
    - # atom 1
      - [ -0.00000000000000,  0.00000000000000 ]
      - [  0.00000000000000, -0.00000000000000 ]
      - [  0.16906895389406,  0.96245977768229 ]
    - # atom 2
      - [ -0.00000000000000,  0.00000000000000 ]
      - [  0.00000000000000, -0.00000000000000 ]
      - [ -0.02657565571918, -0.15128738367465 ]
    - # atom 3
      - [  0.00000000000000, -0.00000000000000 ]
      - [ -0.00000000000000, -0.00000000000000 ]
      - [ -0.02536458117157, -0.14439309283649 ]
  - # 8
    frequency:   11.4400232587
    eigenvector:
    - # atom 1
      - [  0.56776707146931, -0.00000000000000 ]
      - [  0.74061002880161, -0.00008509908377 ]
      - [ -0.00000000000000,  0.00000000000000 ]
    - # atom 2
      - [ -0.21737761991238,  0.00000000000000 ]
      - [ -0.28355298049868,  0.00003258138278 ]
      - [ -0.00000000000000, -0.00000000000000 ]
    - # atom 3
      - [ -0.02342181285371,  0.00000000000000 ]
      - [ -0.03055201748013,  0.00000351055021 ]
      - [ -0.00000000000000,  0.00000000000000 ]
  - # 9
    frequency:   11.4400232587
    eigenvector:
    - # atom 1
      - [ -0.74061003369072,  0.00000000000000 ]
      - [  0.56776706772122, -0.00006523872940 ]
      - [  0.00000000000000,  0.00000000000000 ]
    - # atom 2
      - [  0.28355298237055, -0.00000000000000 ]
      - [ -0.21737761847737,  0.00002497756639 ]
      - [ -0.00000000000000, -0.00000000000000 ]
    - # atom 3
      - [  0.03055201768182, -0.00000000000000 ]
      - [ -0.02342181269910,  0.00000269126088 ]
      - [ -0.00000000000000, -0.00000000000000 ]

- q-position: [    0.0000000,    0.0000000,    0.0300000 ]
  distance:    0.0067322
  band:
  - # 1
    frequency:    0.1473502671
    eigenvector:
    - # atom 1
      - [ -0.02200092232287,  0.00000000000000 ]
      - [ -0.19684072336552, -0.00058478396316 ]
      - [ -0.00000000000003, -0.00000000000000 ]
    - # atom 2
      - [ -0.04689934743236, -0.00000000000000 ]
      - [ -0.41960520284019, -0.00124658347768 ]
      - [ -0.00000000000006, -0.00000000000000 ]
    - # atom 3
      - [ -0.09825851910446, -0.00000000000000 ]
      - [ -0.87911214327794, -0.00261170897171 ]
      - [ -0.00000000000012, -0.00000000000001 ]
  - # 2
    frequency:    0.1473502671
    eigenvector:
    - # atom 1
      - [ -0.19684159201587,  0.00000000000000 ]
      - [  0.02200082523409,  0.00006536111813 ]
      - [  0.00000000000000, -0.00000000000000 ]
    - # atom 2
      - [ -0.41960705454142, -0.00000000000000 ]
      - [  0.04689914046831,  0.00013933024002 ]
      - [  0.00000000000001, -0.00000000000000 ]
    - # atom 3
      - [ -0.87911602276519,  0.00000000000000 ]
      - [  0.09825808549540,  0.00029190988362 ]
      - [  0.00000000000001, -0.00000000000000 ]
  - # 3
    frequency:    0.2545210535
    eigenvector:
    - # atom 1
      - [  0.00000000000000,  0.00000000000000 ]
      - [  0.00000000000001,  0.00000000000003 ]
      - [ -0.04768702128877, -0.19282372256469 ]
    - # atom 2
      - [  0.00000000000000,  0.00000000000000 ]
      - [  0.00000000000002,  0.00000000000005 ]
      - [ -0.10104646639975, -0.40858403977935 ]
    - # atom 3
      - [  0.00000000000001, -0.00000000000000 ]
      - [  0.00000000000004,  0.00000000000011 ]
      - [ -0.21249023474528, -0.85920984294903 ]
  - # 4
    frequency:    2.6811076124
    eigenvector:
    - # atom 1
      - [ -0.00000000000000,  0.00000000000000 ]
      - [  0.00000000000000,  0.00000000000000 ]
      - [  0.00212990684137, -0.07488733467823 ]
    - # atom 2
      - [ -0.00000000000000,  0.00000000000000 ]
      - [  0.00000000000000, -0.00000000000000 ]
      - [  0.02541434190101, -0.89356599575276 ]
    - # atom 3
      - [  0.00000000000000, -0.00000000000000 ]
      - [ -0.00000000000000,  0.00000000000000 ]
      - [ -0.01256339314162,  0.44172778293258 ]
  - # 5
    frequency:    4.1715622512
    eigenvector:
    - # atom 1
      - [  0.01443125559178,  0.00000000000000 ]
      - [ -0.29951462474988,  0.00138262827197 ]
      - [  0.00000000000000,  0.00000000000000 ]
    - # atom 2
      - [  0.04009358885948,  0.00000000000000 ]
      - [ -0.83212553098745,  0.00384128249473 ]
      - [  0.00000000000000, -0.00000000000000 ]
    - # atom 3
      - [ -0.02236817842421, -0.00000000000000 ]
      - [  0.46424211146834, -0.00214304816965 ]
      - [ -0.00000000000000,  0.00000000000000 ]
  - # 6
    frequency:    4.1715622512
    eigenvector:
    - # atom 1
      - [ -0.29951781599764,  0.00000000000000 ]
      - [ -0.01443110183227,  0.00006661727922 ]
      - [ -0.00000000000000,  0.00000000000000 ]
    - # atom 2
      - [ -0.83213439706117,  0.00000000000000 ]
      - [ -0.04009316167763,  0.00018507923910 ]
      - [  0.00000000000000,  0.00000000000000 ]
    - # atom 3
      - [  0.46424705784317, -0.00000000000000 ]
      - [  0.02236794009983, -0.00010325554685 ]
      - [ -0.00000000000000, -0.00000000000000 ]
  - # 7
    frequency:    9.7921004448
    eigenvector:
    - # atom 1
      - [  0.00000000000000,  0.00000000000000 ]
      - [  0.00000000000000,  0.00000000000000 ]
      - [  0.21999294182471,  0.95212153434624 ]
    - # atom 2
      - [ -0.00000000000000, -0.00000000000000 ]
      - [  0.00000000000000, -0.00000000000000 ]
      - [ -0.03468859758919, -0.15013100187212 ]
    - # atom 3
      - [  0.00000000000000,  0.00000000000000 ]
      - [  0.00000000000000, -0.00000000000000 ]
      - [ -0.03287514787584, -0.14228245678148 ]
  - # 8
    frequency:   11.4399105234
    eigenvector:
    - # atom 1
      - [  0.18801624897608, -0.00000000000000 ]
      - [  0.91405691144114, -0.00012883824024 ]
      - [ -0.00000000000000,  0.00000000000000 ]
    - # atom 2
      - [ -0.07199079559338,  0.00000000000000 ]
      - [ -0.34998934736034,  0.00004933173313 ]
      - [  0.00000000000000, -0.00000000000000 ]
    - # atom 3
      - [ -0.00773683098037,  0.00000000000000 ]
      - [ -0.03761325879425,  0.00000530166778 ]
      - [  0.00000000000000, -0.00000000000000 ]
  - # 9
    frequency:   11.4399105234
    eigenvector:
    - # atom 1
      - [ -0.91405692052115,  0.00000000000000 ]
      - [  0.18801624710838, -0.00002650128467 ]
      - [ -0.00000000000000,  0.00000000000000 ]
    - # atom 2
      - [  0.34998935083704,  0.00000000000000 ]
      - [ -0.07199079487824,  0.00001014725364 ]
      - [  0.00000000000000, -0.00000000000000 ]
    - # atom 3
      - [  0.03761325916789, -0.00000000000000 ]
      - [ -0.00773683090352,  0.00000109052256 ]
      - [  0.00000000000000, -0.00000000000000 ]

- q-position: [    0.0000000,    0.0000000,    0.0400000 ]
  distance:    0.0089762
  band:
  - # 1
    frequency:    0.1971467393
    eigenvector:
    - # atom 1
      - [ -0.19743881199535,  0.00000000000000 ]
      - [ -0.01391859512560,  0.00003356911991 ]
      - [ -0.00000000000000, -0.00000000000000 ]
    - # atom 2
      - [ -0.42108707779452, -0.00000000000000 ]
      - [ -0.02968484508801,  0.00007159444723 ]
      - [ -0.00000000000000, -0.00000000000000 ]
    - # atom 3
      - [ -0.88247293769131,  0.00000000000000 ]
      - [ -0.06221058263515,  0.00015004061037 ]
      - [ -0.00000000000000, -0.00000000000000 ]
  - # 2
    frequency:    0.1971467393
    eigenvector:
    - # atom 1
      - [ -0.01391863560684,  0.00000000000000 ]
      - [  0.19743823776023, -0.00047618511913 ]
      - [  0.00000000000000,  0.00000000000000 ]
    - # atom 2
      - [ -0.02968493142428, -0.00000000000000 ]
      - [  0.42108585309617, -0.00101558248997 ]
      - [  0.00000000000000,  0.00000000000001 ]
    - # atom 3
      - [ -0.06221076357021, -0.00000000000000 ]
      - [  0.88247037108881, -0.00212835803010 ]
      - [  0.00000000000001,  0.00000000000002 ]
  - # 3
    frequency:    0.3400264999
    eigenvector:
    - # atom 1
      - [  0.00000000000000,  0.00000000000000 ]
      - [  0.00000000000000,  0.00000000000000 ]
      - [ -0.08030571202236, -0.18124720415335 ]
    - # atom 2
      - [  0.00000000000000,  0.00000000000000 ]
      - [  0.00000000000001,  0.00000000000000 ]
      - [ -0.17064225351757, -0.38513364219817 ]
    - # atom 3
      - [  0.00000000000000,  0.00000000000000 ]
      - [  0.00000000000002,  0.00000000000000 ]
      - [ -0.35851212838498, -0.80914942771139 ]
  - # 4
    frequency:    2.7445180465
    eigenvector:
    - # atom 1
      - [ -0.00000000000000,  0.00000000000000 ]
      - [ -0.00000000000000, -0.00000000000000 ]
      - [ -0.00421169860250, -0.07567542667004 ]
    - # atom 2
      - [ -0.00000000000000,  0.00000000000000 ]
      - [ -0.00000000000000, -0.00000000000000 ]
      - [ -0.04965874780289, -0.89226397293767 ]
    - # atom 3
      - [  0.00000000000000, -0.00000000000000 ]
      - [  0.00000000000000,  0.00000000000000 ]
      - [  0.02457965404612,  0.44164504227297 ]
  - # 5
    frequency:    4.1687599135
    eigenvector:
    - # atom 1
      - [  0.01765008555997,  0.00000000000000 ]
      - [ -0.29946510519415,  0.00077684515103 ]
      - [  0.00000000000000,  0.00000000000000 ]
    - # atom 2
      - [  0.04901822855819,  0.00000000000000 ]
      - [ -0.83168146249117,  0.00215747244046 ]
      - [  0.00000000000000,  0.00000000000000 ]
    - # atom 3
      - [ -0.02733880385038,  0.00000000000000 ]
      - [  0.46385144950820, -0.00120328126081 ]
      - [ -0.00000000000000, -0.00000000000000 ]
  - # 6
    frequency:    4.1687599135
    eigenvector:
    - # atom 1
      - [ -0.29946611280299,  0.00000000000000 ]
      - [ -0.01765002617301,  0.00004578609330 ]
      - [ -0.00000000000000,  0.00000000000000 ]
    - # atom 2
      - [ -0.83168426084590,  0.00000000000000 ]
      - [ -0.04901806362734,  0.00012715820435 ]
      - [  0.00000000000000,  0.00000000000000 ]
    - # atom 3
      - [  0.46385301022700, -0.00000000000000 ]
      - [  0.02733871186394, -0.00007091960091 ]
      - [ -0.00000000000000, -0.00000000000000 ]
  - # 7
    frequency:    9.7940512111
    eigenvector:
    - # atom 1
      - [  0.00000000000000,  0.00000000000000 ]
      - [  0.00000000000000,  0.00000000000000 ]
      - [  0.12661263767599,  0.96898151425974 ]
    - # atom 2
      - [ -0.00000000000000, -0.00000000000000 ]
      - [  0.00000000000000, -0.00000000000000 ]
      - [ -0.02005206460442, -0.15346082572062 ]
    - # atom 3
      - [  0.00000000000000,  0.00000000000000 ]
      - [  0.00000000000000,  0.00000000000000 ]
      - [ -0.01881662569746, -0.14400586541958 ]
  - # 8
    frequency:   11.4397533331
    eigenvector:
    - # atom 1
      - [ -0.65986085990272,  0.00000000000000 ]
      - [ -0.65986084789581, -0.00012587998809 ]
      - [  0.00000000000000, -0.00000000000000 ]
    - # atom 2
      - [  0.25268852495814,  0.00000000000000 ]
      - [  0.25268852036019,  0.00004820475110 ]
      - [ -0.00000000000000,  0.00000000000000 ]
    - # atom 3
      - [  0.02705836142359, -0.00000000000000 ]
      - [  0.02705836093123,  0.00000516185520 ]
      - [ -0.00000000000000, -0.00000000000000 ]
  - # 9
    frequency:   11.4397533331
    eigenvector:
    - # atom 1
      - [  0.65986085990271,  0.00000000000000 ]
      - [ -0.65986084789581, -0.00012587998809 ]
      - [  0.00000000000000, -0.00000000000000 ]
    - # atom 2
      - [ -0.25268852495814,  0.00000000000000 ]
      - [  0.25268852036019,  0.00004820475110 ]
      - [ -0.00000000000000,  0.00000000000000 ]
    - # atom 3
      - [ -0.02705836142359,  0.00000000000000 ]
      - [  0.02705836093123,  0.00000516185520 ]
      - [ -0.00000000000000,  0.00000000000000 ]

- q-position: [    0.0000000,    0.0000000,    0.0500000 ]
  distance:    0.0112203
  band:
  - # 1
    frequency:    0.2469098077
    eigenvector:
    - # atom 1
      - [ -0.01783005271062,  0.00000000000000 ]
      - [  0.19694334080316, -0.00019204220949 ]
      - [ -0.00000000000000, -0.00000000000000 ]
    - # atom 2
      - [ -0.03805093668186, -0.00000000000000 ]
      - [  0.42029480857066, -0.00040983535338 ]
      - [ -0.00000000000001, -0.00000000000000 ]
    - # atom 3
      - [ -0.07977445599902,  0.00000000000000 ]
      - [  0.88115543628443, -0.00085922700506 ]
      - [ -0.00000000000002, -0.00000000000000 ]
  - # 2
    frequency:    0.2469098077
    eigenvector:
    - # atom 1
      - [  0.19694343443466,  0.00000000000000 ]
      - [  0.01783004423380, -0.00001738632581 ]
      - [  0.00000000000000,  0.00000000000000 ]
    - # atom 2
      - [  0.42029500838871, -0.00000000000000 ]
      - [  0.03805091859156, -0.00003710398356 ]
      - [  0.00000000000001,  0.00000000000000 ]
    - # atom 3
      - [  0.88115585520647, -0.00000000000000 ]
      - [  0.07977441807238, -0.00007778915217 ]
      - [  0.00000000000002,  0.00000000000000 ]
  - # 3
    frequency:    0.4260891806
    eigenvector:
    - # atom 1
      - [  0.00000000000000,  0.00000000000000 ]
      - [ -0.00000000000000,  0.00000000000000 ]
      - [ -0.19539464896956, -0.03030823191448 ]
    - # atom 2
      - [  0.00000000000001,  0.00000000000000 ]
      - [ -0.00000000000001,  0.00000000000000 ]
      - [ -0.41658031563907, -0.06461698354576 ]
    - # atom 3
      - [  0.00000000000002,  0.00000000000000 ]
      - [ -0.00000000000001,  0.00000000000000 ]
      - [ -0.87452103550947, -0.13564949960548 ]
  - # 4
    frequency:    2.8233219718
    eigenvector:
    - # atom 1
      - [ -0.00000000000000,  0.00000000000000 ]
      - [  0.00000000000000, -0.00000000000000 ]
      - [  0.04235858040078, -0.06424410507425 ]
    - # atom 2
      - [ -0.00000000000000, -0.00000000000000 ]
      - [  0.00000000000000, -0.00000000000000 ]
      - [  0.49174667031618, -0.74581878001578 ]
    - # atom 3
      - [  0.00000000000000,  0.00000000000000 ]
      - [ -0.00000000000000,  0.00000000000000 ]
      - [ -0.24370897260221,  0.36962676027519 ]
  - # 5
    frequency:    4.1651541308
    eigenvector:
    - # atom 1
      - [  0.04454076176180,  0.00000000000000 ]
      - [ -0.29681833873460, -0.00009845671908 ]
      - [  0.00000000000000, -0.00000000000000 ]
    - # atom 2
      - [  0.12364112372237,  0.00000000000000 ]
      - [ -0.82394084633790, -0.00027330694185 ]
      - [  0.00000000000000,  0.00000000000000 ]
    - # atom 3
      - [ -0.06892964209102,  0.00000000000000 ]
      - [  0.45934512670535,  0.00015236799145 ]
      - [ -0.00000000000000,  0.00000000000000 ]
  - # 6
    frequency:    4.1651541308
    eigenvector:
    - # atom 1
      - [ -0.29681835506399,  0.00000000000000 ]
      - [ -0.04454075931140, -0.00001477448141 ]
      - [  0.00000000000000,  0.00000000000000 ]
    - # atom 2
      - [ -0.82394089166681, -0.00000000000000 ]
      - [ -0.12364111692028, -0.00004101262330 ]
      - [ -0.00000000000000,  0.00000000000000 ]
    - # atom 3
      - [  0.45934515197611, -0.00000000000000 ]
      - [  0.06892963829887,  0.00002286444316 ]
      - [ -0.00000000000000, -0.00000000000000 ]
  - # 7
    frequency:    9.7965619960
    eigenvector:
    - # atom 1
      - [  0.00000000000000,  0.00000000000000 ]
      - [ -0.00000000000000, -0.00000000000000 ]
      - [  0.79352993102959,  0.57034291125786 ]
    - # atom 2
      - [  0.00000000000000,  0.00000000000000 ]
      - [  0.00000000000000,  0.00000000000000 ]
      - [ -0.12638580454145, -0.09083872565501 ]
    - # atom 3
      - [ -0.00000000000000, -0.00000000000000 ]
      - [ -0.00000000000000, -0.00000000000000 ]
      - [ -0.11709456927189, -0.08416072906584 ]
  - # 8
    frequency:   11.4395523232
    eigenvector:
    - # atom 1
      - [ -0.90206373262267,  0.00000000000000 ]
      - [ -0.23893802463586,  0.00001273482958 ]
      - [ -0.00000000000000, -0.00000000000000 ]
    - # atom 2
      - [  0.34549069517403,  0.00000000000000 ]
      - [  0.09151333907965, -0.00000487744376 ]
      - [  0.00000000000000,  0.00000000000000 ]
    - # atom 3