   3  144
1 1
     3.384412999965090     0.000000000000000    -0.000000000000000
     0.000000000000000     3.384412999965089    -0.000000000000000
    -0.000000000000000    -0.000000000000000     2.712814000000000
1 2
    -0.054876729240333    -0.011551050641228    -0.000000000000000
     0.011562615936115     0.028373729239913    -0.000000000000000
    -0.000000000000000    -0.000000000000000    -0.010815000000000
1 3
    -0.009868728795669     0.000000000000000    -0.000000000000000
    -0.000000000029809     0.012734728795175    -0.000000000000000
    -0.000000000000000    -0.000000000000000     0.007376000000000
1 4
    -0.054876729270799     0.011551050641228    -0.000000000000000
    -0.011562616155692     0.028373729270379    -0.000000000000000
    -0.000000000000000    -0.000000000000000    -0.010815000000000
1 5
     0.007566122553443     0.024488781262203    -0.000000000000000
     0.047602448068027    -0.034069122553863    -0.000000000000000
    -0.000000000000000    -0.000000000000000    -0.010815000000000
1 6
     0.007566122618033    -0.024488781262203    -0.000000000000000
    -0.047602447958212    -0.034069122618453    -0.000000000000000
    -0.000000000000000    -0.000000000000000    -0.010815000000000
1 7
    -0.007386045507854    -0.001405349378600    -0.000000000000000
    -0.001405349383227    -0.005763287826044    -0.000000000000000
    -0.000000000000000    -0.000000000000000     0.003421000000000
1 8
    -0.007386045511561     0.001405349378600    -0.000000000000000
     0.001405349378947    -0.005763287822338    -0.000000000000000
    -0.000000000000000    -0.000000000000000     0.003421000000000
1 9
     0.007083864384556     0.009787584234856    -0.000000000000000
     0.009787584267083    -0.004217864385050    -0.000000000000000
    -0.000000000000000    -0.000000000000000     0.007376000000000
1 10
    -0.004922995091524    -0.000000000000000    -0.000000000000000
     0.000000000004287    -0.008173671575723    -0.000000000000000
     0.000000000000000    -0.000000000000000     0.003406000000000
1 11
     0.007083864410372    -0.009787584234856    -0.000000000000000
    -0.009787584237274    -0.004217864410866    -0.000000000000000
    -0.000000000000000    -0.000000000000000     0.007376000000000
1 12
    -0.004951908981433    -0.000000000000000    -0.000000000000000
     0.000000000004280    -0.008197424352466    -0.000000000000000
     0.000000000000000    -0.000000000000000     0.003421000000000
1 13
     0.007556106606413     0.047608230620975    -0.000000000000000
     0.024494564052542    -0.034059106606833    -0.000000000000000
    -0.000000000000000    -0.000000000000000    -0.010815000000000
1 14
    -0.007361002456529     0.001407584206154    -0.000000000000000
     0.001407584206502    -0.005735664210718    -0.000000000000000
    -0.000000000000000    -0.000000000000000     0.003406000000000
1 15
    -0.007361002452817    -0.001407584206155    -0.000000000000000
    -0.001407584210789    -0.005735664214430    -0.000000000000000
    -0.000000000000000    -0.000000000000000     0.003406000000000
1 16
     0.007556106731982    -0.047608230620975    -0.000000000000000
    -0.024494563942780    -0.034059106732402    -0.000000000000000
    -0.000000000000000    -0.000000000000000    -0.010815000000000
1 17
     0.018166999999678     0.000000000000000    -0.000000000000000
     0.000000000000000     0.018166999999678    -0.000000000000000
    -0.000000000000000    -0.000000000000000    -0.028314000000000
1 18
    -0.003508475090368    -0.001390863248668    -0.003358166666667
     0.001390136736993     0.009229808423110    -0.000464478296403
    -0.003345789073738     0.000465649829178    -0.000797500000000
1 19
    -0.008496759019358     0.000000000000000    -0.000000000000000
    -0.000000000015673     0.003387425685397     0.000357957167214
     0.000000000000412    -0.000312339914344    -0.004316500000000
1 20
    -0.003508475094037     0.001390863248668     0.003358166666667
    -0.001390136770591     0.009229808426779    -0.000464478287545
     0.003345789072510     0.000465649829178    -0.000797500000000
1 21
     0.006044922957642     0.004125520182682     0.002081333333333
     0.006906520203304    -0.000323589624900    -0.002676018497317
     0.001269629958997    -0.003130363245055    -0.000797500000000
1 22
     0.006044922968524    -0.004125520182682    -0.002081333333333
    -0.006906520186507    -0.000323589635781    -0.002676018502807
    -0.001269629950741    -0.003130363245055    -0.000797500000000
1 23
    -0.005761767123394    -0.003642099498750     0.002797500000000
    -0.003642099510742    -0.001556232877241     0.001615137383177
    -0.003663538065403    -0.002115144687986     0.000132500000000
1 24
    -0.005761767133000     0.003642099498750    -0.002797500000000
     0.003642099499650    -0.001556232867635     0.001615137375798
     0.003663538070982    -0.002115144687986     0.000132500000000
1 25
     0.000416379502422     0.005146002924238    -0.000310000000000
     0.005146002941182    -0.005525712836383    -0.000178978584016
     0.000270494300471     0.000156169957172    -0.004316500000000
1 26
     0.000596265447147    -0.000000000000000    -0.000000000000000
     0.000000000011153    -0.007860932114416    -0.004235441578523
    -0.000000000004243     0.003217619857007     0.000135500000000
1 27
     0.000416379515995    -0.005146002924238     0.000310000000000
    -0.005146002925510    -0.005525712849956    -0.000178978583198
    -0.000270494300883     0.000156169957172    -0.004316500000000
1 28
     0.000546534255442    -0.000000000000000    -0.000000000000000
     0.000000000011092    -0.007864534256077    -0.003230274758975
    -0.000000000005579     0.004230289375971     0.000132500000000
1 29
     0.006045552119125     0.006906156934014    -0.001276833333333
     0.004125156949715    -0.000324218786383     0.003140496790352
    -0.002076159121769     0.002664713415877    -0.000797500000000
1 30
    -0.005746632728855     0.003662073963328    -0.003668000000000
     0.003662073964233    -0.001518033938414     0.002117720784424
     0.002786540540476    -0.001608809928503     0.000135500000000
1 31
    -0.005746632719196    -0.003662073963328     0.003668000000000
    -0.003662073975386    -0.001518033948073     0.002117720794099
    -0.002786540536233    -0.001608809928503     0.000135500000000
1 32
     0.006045552137340    -0.006906156934014     0.001276833333333
    -0.004125156932914    -0.000324218804598     0.003140496793720
     0.002076159114741     0.002664713415877    -0.000797500000000
1 33
     0.018166999999678     0.000000000000000     0.000000000000000
     0.000000000000000     0.018166999999678    -0.000000000000000
    -0.000000000000000    -0.000000000000000    -0.028314000000000
1 34
    -0.003508475090368    -0.001390863248668     0.003358166666667
     0.001390136736993     0.009229808423110     0.000464478296403
     0.003345789073738    -0.000465649829178    -0.000797500000000
1 35
    -0.008496759019358     0.000000000000000     0.000000000000000
    -0.000000000015673     0.003387425685397    -0.000357957167214
    -0.000000000000412     0.000312339914344    -0.004316500000000
1 36
    -0.003508475094037     0.001390863248668    -0.003358166666667
    -0.001390136770591     0.009229808426779     0.000464478287545
    -0.003345789072510    -0.000465649829178    -0.000797500000000
1 37
     0.006044922957642     0.004125520182682    -0.002081333333333
     0.006906520203304    -0.000323589624900     0.002676018497317
    -0.001269629958997     0.003130363245055    -0.000797500000000
1 38
     0.006044922968524    -0.004125520182682     0.002081333333333
    -0.006906520186507    -0.000323589635781     0.002676018502807
     0.001269629950741     0.003130363245055    -0.000797500000000
1 39
    -0.005761767123394    -0.003642099498750    -0.002797500000000
    -0.003642099510742    -0.001556232877241    -0.001615137383177
     0.003663538065403     0.002115144687986     0.000132500000000
1 40
    -0.005761767133000     0.003642099498750     0.002797500000000
     0.003642099499650    -0.001556232867635    -0.001615137375798
    -0.003663538070982     0.002115144687986     0.000132500000000
1 41
     0.000416379502422     0.005146002924238     0.000310000000000
     0.005146002941182    -0.005525712836383     0.000178978584016
    -0.000270494300471    -0.000156169957172    -0.004316500000000
1 42
     0.000596265447147    -0.000000000000000     0.000000000000000
     0.000000000011153    -0.007860932114416     0.004235441578523
     0.000000000004243    -0.003217619857007     0.000135500000000
1 43
     0.000416379515995    -0.005146002924238    -0.000310000000000
    -0.005146002925510    -0.005525712849956     0.000178978583198
     0.000270494300883    -0.000156169957172    -0.004316500000000
1 44
     0.000546534255442    -0.000000000000000     0.000000000000000
     0.000000000011092    -0.007864534256077     0.003230274758975
     0.000000000005579    -0.004230289375971     0.000132500000000
1 45
     0.006045552119125     0.006906156934014     0.001276833333333
     0.004125156949715    -0.000324218786383    -0.003140496790352
     0.002076159121769    -0.002664713415877    -0.000797500000000
1 46
    -0.005746632728855     0.003662073963328     0.003668000000000
     0.003662073964233    -0.001518033938414    -0.002117720784424
    -0.002786540540476     0.001608809928503     0.000135500000000
1 47
    -0.005746632719196    -0.003662073963328    -0.003668000000000
    -0.003662073975386    -0.001518033948073    -0.002117720794099
     0.002786540536233     0.001608809928503     0.000135500000000
1 48
     0.006045552137340    -0.006906156934014    -0.001276833333333
    -0.004125156932914    -0.000324218804598    -0.003140496793720
    -0.002076159114741    -0.002664713415877    -0.000797500000000
1 49
    -0.353607292459802    -0.000000000000000    -0.000000000000000
     0.000000001274377    -1.319942040844512    -0.000000000000000
    -0.000000000000000    -0.000000000000000    -0.337353000000000
1 50
     0.023370708935632     0.044479138012070    -0.000000000000000
     0.044479138158525    -0.027989375601685    -0.000000000000000
    -0.000000000000000    -0.000000000000000    -0.023669000000000
1 51
     0.016270354762474    -0.000000000000000    -0.000000000000000
     0.000000000027725    -0.004753021428574    -0.000000000000000
    -0.000000000000000    -0.000000000000000    -0.001690000000000
1 52
     0.023370709052948    -0.044479138012070    -0.000000000000000
    -0.044479138023060    -0.027989375719001    -0.000000000000000
    -0.000000000000000    -0.000000000000000    -0.023669000000000
1 53
    -0.011696283186440     0.008401762800211    -0.000000000000000
    -0.031423903995279     0.043815616520415    -0.000000000000000
    -0.000000000000000    -0.000000000000000     0.010309000000000
1 54
    -0.011696283164280    -0.008401762800211    -0.000000000000000
     0.031423903848864     0.043815616498255    -0.000000000000000
    -0.000000000000000    -0.000000000000000     0.010309000000000
1 55
     0.000502822607182     0.009103388919326    -0.000000000000000
     0.009103388921576     0.011014510726717    -0.000000000000000
    -0.000000000000000    -0.000000000000000    -0.001690000000000
1 56
     0.000502822631193    -0.009103388919326    -0.000000000000000
    -0.009103388949301     0.011014510702707    -0.000000000000000
    -0.000000000000000    -0.000000000000000    -0.001690000000000
1 57
     0.019968762138452    -0.049705726248262    -0.000000000000000
    -0.009880059588772     0.012150571195523    -0.000000000000000
    -0.000000000000000    -0.000000000000000     0.010309000000000
1 58
     0.017275000000302     0.000000000000000    -0.000000000000000
     0.000000000000000     0.017275000000302    -0.000000000000000
    -0.000000000000000    -0.000000000000000    -0.000539000000000
1 59
     0.019968762007351     0.049705726248262    -0.000000000000000
     0.009880059609392     0.012150571326624    -0.000000000000000
    -0.000000000000000    -0.000000000000000     0.010309000000000
1 60
    -0.053669417987659     0.000000000000000    -0.000000000000000
    -0.000000000135465     0.049050751321606    -0.000000000000000
    -0.000000000000000    -0.000000000000000    -0.023669000000000
1 61
    -1.078358354300156     0.418435219960111    -0.000000000000000
     0.418435220063502    -0.595190979004158    -0.000000000000000
    -0.000000000000000    -0.000000000000000    -0.337353000000000
1 62
     0.039906521101270     0.001631010951526    -0.000000000000000
    -0.038194655719843    -0.007787187767295    -0.000000000000000
    -0.000000000000000    -0.000000000000000     0.010309000000000
1 63
     0.039906521105572    -0.001631010951526    -0.000000000000000
     0.038194655845637    -0.007787187771597    -0.000000000000000
    -0.000000000000000    -0.000000000000000     0.010309000000000
1 64
    -1.078358353196513    -0.418435219960111    -0.000000000000000
    -0.418435221337879    -0.595190980107801    -0.000000000000000
    -0.000000000000000    -0.000000000000000    -0.337353000000000
1 65
    -0.045081619641829    -0.000000000000000     0.000000000000000
    -0.000000000037457    -0.016678380357575     0.054056728401792
    -0.000000000035477     0.026901651217875     0.020878000000000
1 66
     0.021063363037568     0.018628835260280     0.023346000000000
     0.018628835321618    -0.000447363036757     0.013478819427217
     0.020912352043489     0.012073752080205     0.023967000000000
1 67
     0.019224469790866    -0.000000000000000    -0.000000000000000
     0.000000000026335    -0.000745136456902    -0.001038653135191
     0.000000000003268    -0.002477827009918    -0.000507500000000
1 68
     0.021063363086702    -0.018628835260280    -0.023346000000000
    -0.018628835264883    -0.000447363085891     0.013478819365641
    -0.020912352075334     0.012073752080205     0.023967000000000
1 69
    -0.003214046199823    -0.009894563594573     0.000326833333333
    -0.020814230319641     0.013136379533742     0.012637331378771
     0.006518453275441     0.000949620595988    -0.006167500000000
1 70
    -0.003214046225921     0.009894563594573    -0.000326833333333
     0.020814230276516     0.013136379559839     0.012637331377909
    -0.006518453277946     0.000949620595988    -0.006167500000000
1 71
     0.004247265093636     0.008647093149418    -0.000899500000000
     0.008647093151554     0.014232068240328     0.000519326566409
    -0.002145861140305     0.001238913504959    -0.000507500000000
1 72
     0.004247265116443    -0.008647093149418     0.000899500000000
    -0.008647093177890     0.014232068217520     0.000519326568782
     0.002145861137037     0.001238913504959    -0.000507500000000
1 73
    -0.004248524677588    -0.020216973826301     0.011107666666667
    -0.009297307200380     0.014170858011506    -0.006035619704801
     0.004081622192339     0.005170335828009    -0.006167500000000
1 74
     0.011125000000301     0.000000000000000     0.000000000000000
     0.000000000000000     0.011125000000301     0.000000000000000
    -0.000000000000000    -0.000000000000000     0.000730500000000
1 75
    -0.004248524730911     0.020216973826301    -0.011107666666667
     0.009297307151798     0.014170858064829    -0.006035619734098
    -0.004081622205976     0.005170335828009    -0.006167500000000
1 76
    -0.011202726123054     0.000000000000000    -0.000000000000000
    -0.000000000056736     0.031818726123864    -0.026957638792858
     0.000000000031845    -0.024147504160410     0.023967000000000
1 77
    -0.023779190162419    -0.012298963374082     0.046814500000000
    -0.012298963377121    -0.037980809836985    -0.027028364139158
     0.023297513396784    -0.013450825608938     0.020878000000000
1 78
     0.022346070910011     0.006057089768272     0.010780833333333
    -0.004862576861147    -0.012423737576093    -0.006601711644673
    -0.002436831069465    -0.006119956423997    -0.006167500000000
1 79
     0.022346070925987    -0.006057089768272    -0.010780833333333
     0.004862576952854    -0.012423737592069    -0.006601711673108
     0.002436831085607    -0.006119956423997    -0.006167500000000
1 80
    -0.023779190194858     0.012298963374082    -0.046814500000000
     0.012298963414579    -0.037980809804546    -0.027028364262634
    -0.023297513361307    -0.013450825608938     0.020878000000000
1 81
    -0.045081619641829    -0.000000000000000    -0.000000000000000
    -0.000000000037457    -0.016678380357575    -0.054056728401792
     0.000000000035477    -0.026901651217875     0.020878000000000
1 82
     0.021063363037568     0.018628835260280    -0.023346000000000
     0.018628835321618    -0.000447363036757    -0.013478819427217
    -0.020912352043489    -0.012073752080205     0.023967000000000
1 83
     0.019224469790866    -0.000000000000000     0.000000000000000
     0.000000000026335    -0.000745136456902     0.001038653135191
    -0.000000000003268     0.002477827009918    -0.000507500000000
1 84
     0.021063363086702    -0.018628835260280     0.023346000000000
    -0.018628835264883    -0.000447363085891    -0.013478819365641
     0.020912352075334    -0.012073752080205     0.023967000000000
1 85
    -0.003214046199823    -0.009894563594573    -0.000326833333333
    -0.020814230319641     0.013136379533742    -0.012637331378771
    -0.006518453275441    -0.000949620595988    -0.006167500000000
1 86
    -0.003214046225921     0.009894563594573     0.000326833333333
     0.020814230276516     0.013136379559839    -0.012637331377909
     0.006518453277946    -0.000949620595988    -0.006167500000000
1 87
     0.004247265093636     0.008647093149418     0.000899500000000
     0.008647093151554     0.014232068240328    -0.000519326566409
     0.002145861140305    -0.001238913504959    -0.000507500000000
1 88
     0.004247265116443    -0.008647093149418    -0.000899500000000
    -0.008647093177890     0.014232068217520    -0.000519326568782
    -0.002145861137037    -0.001238913504959    -0.000507500000000
1 89
    -0.004248524677588    -0.020216973826301    -0.011107666666667
    -0.009297307200380     0.014170858011506     0.006035619704801
    -0.004081622192339    -0.005170335828009    -0.006167500000000
1 90
     0.011125000000301     0.000000000000000    -0.000000000000000
     0.000000000000000     0.011125000000301    -0.000000000000000
    -0.000000000000000    -0.000000000000000     0.000730500000000
1 91
    -0.004248524730911     0.020216973826301     0.011107666666667
     0.009297307151798     0.014170858064829     0.006035619734098
     0.004081622205976    -0.005170335828009    -0.006167500000000
1 92
    -0.011202726123054     0.000000000000000     0.000000000000000
    -0.000000000056736     0.031818726123864     0.026957638792858
    -0.000000000031845     0.024147504160410     0.023967000000000
1 93
    -0.023779190162419    -0.012298963374082    -0.046814500000000
    -0.012298963377121    -0.037980809836985     0.027028364139158
    -0.023297513396784     0.013450825608938     0.020878000000000
1 94
     0.022346070910011     0.006057089768272    -0.010780833333333
    -0.004862576861147    -0.012423737576093     0.006601711644673
     0.002436831069465     0.006119956423997    -0.006167500000000
1 95
     0.022346070925987    -0.006057089768272     0.010780833333333
     0.004862576952854    -0.012423737592069     0.006601711673108
    -0.002436831085607     0.006119956423997    -0.006167500000000
1 96
    -0.023779190194858     0.012298963374082     0.046814500000000
     0.012298963414579    -0.037980809804546     0.027028364262634
     0.023297513361307     0.013450825608938     0.020878000000000
1 97
    -0.256677640866160    -0.264623255410607     0.444921000000000
    -0.264623256281924     0.048882974196584     0.256875259932187
     0.432872202750349     0.249918882751744    -0.284843500000000
1 98
    -0.015446989394177    -0.006480954363952     0.004464500000000
     0.000018045594399     0.016158989394162    -0.004831555726101
    -0.002962275447882    -0.001795924005363     0.004076500000000
1 99
    -0.015446989411271     0.006480954363952    -0.004464500000000
    -0.000018045677761     0.016158989411255    -0.004831555737877
     0.002962275452619    -0.001795924005363     0.004076500000000
1 100
    -0.256677641564117     0.264623255410607    -0.444921000000000
     0.264623255475993     0.048882974894541     0.256875258758686
    -0.432872203409522     0.249918882751744    -0.284843500000000
1 101
    -0.014649995770923    -0.000000000000000     0.000000000000000
     0.000000000050397    -0.052865337562356     0.060260357049725
    -0.000000000037526     0.028454853995915    -0.004565500000000
1 102
     0.005458973144416    -0.012052017448353    -0.001952000000000
    -0.018551017467727    -0.004746973144431     0.006282148282037
    -0.003036453536213    -0.001667443787972     0.004076500000000
1 103
    -0.002883000000028    -0.000000000000000     0.000000000000000
    -0.000000000000000    -0.002883000000028     0.000000000000000
    -0.000000000000000    -0.000000000000000     0.002001000000000
1 104
     0.005458973112628     0.012052017448353     0.001952000000000
     0.018551017494646    -0.004746973112643     0.006282148287186
     0.003036453540611    -0.001667443787972     0.004076500000000
1 105
    -0.012199689140445     0.004472693615998     0.010181500000000
     0.004472693630725    -0.017364310859617     0.005878291784383
     0.000352774844692     0.000203674651521    -0.002004000000000
1 106
    -0.012199689128648    -0.004472693615998    -0.010181500000000
    -0.004472693617103    -0.017364310871414     0.005878291757529
    -0.000352774845230     0.000203674651521    -0.002004000000000
1 107
     0.011056016294382    -0.015319563084402    -0.006416500000000
    -0.008820563071791    -0.010344016294398    -0.001450592561085
    -0.000074178092729     0.003463367793335     0.004076500000000
1 108
     0.011056016253976     0.015319563084402     0.006416500000000
     0.008820563128235    -0.010344016253992    -0.001450592544161
     0.000074178083594     0.003463367793335     0.004076500000000
1 109
    -0.043311502136320     0.016547728388199     0.052187000000000
     0.016547728392288    -0.024203831196959    -0.030130178456039
     0.024642626462010    -0.014227426997958    -0.004565500000000
1 110
    -0.019946621731000    -0.000000000000000    -0.000000000000000
    -0.000000000013622    -0.009617378269062    -0.011756583541912
     0.000000000000537    -0.000407349303043    -0.002004000000000
1 111
    -0.043311502092675    -0.016547728388199    -0.052187000000000
    -0.016547728442685    -0.024203831240604    -0.030130178593685
    -0.024642626424484    -0.014227426997958    -0.004565500000000
1 112
     0.201663282425913    -0.000000000000000    -0.000000000000000
     0.000000000805931    -0.409457949095489    -0.513750518690873
     0.000000000659173    -0.499837765503489    -0.284843500000000
1 113
    -0.256677640866160    -0.264623255410607    -0.444921000000000
    -0.264623256281924     0.048882974196584    -0.256875259932187
    -0.432872202750349    -0.249918882751744    -0.284843500000000
1 114
    -0.015446989394177    -0.006480954363952    -0.004464500000000
     0.000018045594399     0.016158989394162     0.004831555726101
     0.002962275447882     0.001795924005363     0.004076500000000
1 115
    -0.015446989411271     0.006480954363952     0.004464500000000
    -0.000018045677761     0.016158989411255     0.004831555737877
    -0.002962275452619     0.001795924005363     0.004076500000000
1 116
    -0.256677641564117     0.264623255410607     0.444921000000000
     0.264623255475993     0.048882974894541    -0.256875258758686
     0.432872203409522    -0.249918882751744    -0.284843500000000
1 117
    -0.014649995770923    -0.000000000000000    -0.000000000000000
     0.000000000050397    -0.052865337562356    -0.060260357049725
     0.000000000037526    -0.028454853995915    -0.004565500000000
1 118
     0.005458973144416    -0.012052017448353     0.001952000000000
    -0.018551017467727    -0.004746973144431    -0.006282148282037
     0.003036453536213     0.001667443787972     0.004076500000000
1 119
    -0.002883000000028    -0.000000000000000    -0.000000000000000
    -0.000000000000000    -0.002883000000028    -0.000000000000000
    -0.000000000000000    -0.000000000000000     0.002001000000000
1 120
     0.005458973112628     0.012052017448353    -0.001952000000000
     0.018551017494646    -0.004746973112643    -0.006282148287186
    -0.003036453540611     0.001667443787972     0.004076500000000
1 121
    -0.012199689140445     0.004472693615998    -0.010181500000000
     0.004472693630725    -0.017364310859617    -0.005878291784383
    -0.000352774844692    -0.000203674651521    -0.002004000000000
1 122
    -0.012199689128648    -0.004472693615998     0.010181500000000
    -0.004472693617103    -0.017364310871414    -0.005878291757529
     0.000352774845230    -0.000203674651521    -0.002004000000000
1 123
     0.011056016294382    -0.015319563084402     0.006416500000000
    -0.008820563071791    -0.010344016294398     0.001450592561085
     0.000074178092729    -0.003463367793335     0.004076500000000
1 124
     0.011056016253976     0.015319563084402    -0.006416500000000
     0.008820563128235    -0.010344016253992     0.001450592544161
    -0.000074178083594    -0.003463367793335     0.004076500000000
1 125
    -0.043311502136320     0.016547728388199    -0.052187000000000
     0.016547728392288    -0.024203831196959     0.030130178456039
    -0.024642626462010     0.014227426997958    -0.004565500000000
1 126
    -0.019946621731000    -0.000000000000000     0.000000000000000
    -0.000000000013622    -0.009617378269062     0.011756583541912
    -0.000000000000537     0.000407349303043    -0.002004000000000
1 127
    -0.043311502092675    -0.016547728388199     0.052187000000000
    -0.016547728442685    -0.024203831240604     0.030130178593685
     0.024642626424484     0.014227426997958    -0.004565500000000
1 128
     0.201663282425913    -0.000000000000000     0.000000000000000
     0.000000000805931    -0.409457949095489     0.513750518690873
    -0.000000000659173     0.499837765503489    -0.284843500000000
1 129
     0.007806810223519    -0.011587171271078    -0.000000000000000
    -0.011587171309231     0.021186523109804    -0.000000000000000
    -0.000000000000000    -0.000000000000000    -0.008826000000000
1 130
    -0.009388164477824     0.000036893451056    -0.000000000000000
    -0.005802439920376     0.011714164477752    -0.000000000000000
    -0.000000000000000    -0.000000000000000    -0.005435000000000
1 131
    -0.009388164477726    -0.000036893451056    -0.000000000000000
     0.005802439864718     0.011714164477654    -0.000000000000000
    -0.000000000000000    -0.000000000000000    -0.005435000000000
1 132
     0.007806810192958     0.011587171271078    -0.000000000000000
     0.011587171273941     0.021186523140366    -0.000000000000000
    -0.000000000000000    -0.000000000000000    -0.008826000000000
1 133
     0.000827440183446    -0.000000000000000    -0.000000000000000
     0.000000000012098    -0.008346106850171    -0.000000000000000
    -0.000000000000000    -0.000000000000000    -0.006529000000000
1 134
     0.003942027416357    -0.013498629743616    -0.000000000000000
    -0.007659296416509    -0.001616027416429    -0.000000000000000
    -0.000000000000000    -0.000000000000000    -0.005435000000000
1 135
    -0.003251000000069    -0.000000000000000    -0.000000000000000
    -0.000000000000000    -0.003251000000069    -0.000000000000000
    -0.000000000000000    -0.000000000000000    -0.002303000000000
1 136
     0.003942027380754     0.013498629743616    -0.000000000000000
     0.007659296431168    -0.001616027380826    -0.000000000000000
    -0.000000000000000    -0.000000000000000    -0.005435000000000
1 137
    -0.007075869575583     0.004309568317005    -0.000000000000000
     0.004309568331195    -0.012052130424447    -0.000000000000000
    -0.000000000000000    -0.000000000000000     0.003278000000000
1 138
    -0.007075869564216    -0.004309568317005    -0.000000000000000
    -0.004309568318069    -0.012052130435814    -0.000000000000000
    -0.000000000000000    -0.000000000000000     0.003278000000000
1 139
     0.008935137085410    -0.004776523194672    -0.000000000000000
    -0.010615856526294    -0.006609137085482    -0.000000000000000
    -0.000000000000000    -0.000000000000000    -0.005435000000000
1 140
     0.008935137072812     0.004776523194672    -0.000000000000000
     0.010615856567293    -0.006609137072884    -0.000000000000000
    -0.000000000000000    -0.000000000000000    -0.005435000000000
1 141
    -0.006052720097005     0.003972262383446    -0.000000000000000
     0.003972262384428    -0.001465946569720    -0.000000000000000
    -0.000000000000000    -0.000000000000000    -0.006529000000000
1 142
    -0.014540260860246    -0.000000000000000    -0.000000000000000
    -0.000000000013125    -0.004587739139784    -0.000000000000000
     0.000000000000000    -0.000000000000000     0.003278000000000
1 143
    -0.006052720086528    -0.003972262383446    -0.000000000000000
    -0.003972262396526    -0.001465946580197    -0.000000000000000
    -0.000000000000000    -0.000000000000000    -0.006529000000000
1 144
     0.027876379583508     0.000000000000000    -0.000000000000000
     0.000000000035290     0.001116953749815    -0.000000000000000
     0.000000000000000    -0.000000000000000    -0.008826000000000
49 1
    -0.352971684153561    -0.000000000000000    -0.000000000000000
     0.000000001274506    -1.319404315874416    -0.000000000000000
    -0.000000000000000    -0.000000000000000    -0.333316000000000
49 2
     0.024014342282578    -0.044454254037294    -0.000000000000000