phonopy:
  version: 2.10.0
  frequency_unit_conversion_factor: 15.633302
  symmetry_tolerance: 1.00000e-05
  configuration:
    dim: "4 0 0 0 4 0 0 0 3"
    band_points: "101"
    force_constants: "READ"
    band: "0 0 0 0 0 1"
    eigenvectors: ".TRUE."
    cell_filename: "POSCAR-unitcell"

physical_unit:
  atomic_mass: "AMU"
  length: "angstrom"
  force_constants: "eV/angstrom^2"

space_group:
  type: "P-6m2"
  number: 187
  Hall_symbol: "P -6 2"

supercell_matrix:
- [   4,   0,   0 ]
- [   0,   4,   0 ]
- [   0,   0,   3 ]

primitive_cell:
  lattice:
  - [     4.377930990000000,     0.000000000000000,     0.000000000000000 ] # a
  - [    -2.188965500000000,     3.791399450000000,     0.000000000000000 ] # b
  - [     0.000000000000000,     0.000000000000000,     4.456208890000000 ] # c
  points:
  - symbol: Li # 1
    coordinates: [  0.000000000000000,  0.000000000000000,  0.500000000000000 ]
    mass: 6.941000
  - symbol: P  # 2
    coordinates: [  0.333333330000000,  0.666666670000000,  0.500000000000000 ]
    mass: 30.973762
  - symbol: Ba # 3
    coordinates: [  0.666666670000000,  0.333333330000000,  0.000000000000000 ]
    mass: 137.327000
  reciprocal_lattice: # without 2pi
  - [     0.228418401816791,     0.131877426194724,     0.000000000000000 ] # a*
  - [     0.000000000000000,     0.263754851786983,     0.000000000000000 ] # b*
  - [     0.000000000000000,     0.000000000000000,     0.224405997269127 ] # c*

unit_cell:
  lattice:
  - [     4.377930990000000,     0.000000000000000,     0.000000000000000 ] # a
  - [    -2.188965500000000,     3.791399450000000,     0.000000000000000 ] # b
  - [     0.000000000000000,     0.000000000000000,     4.456208890000000 ] # c
  points:
  - symbol: Li # 1
    coordinates: [  0.000000000000000,  0.000000000000000,  0.500000000000000 ]
    mass: 6.941000
    reduced_to: 1
  - symbol: P  # 2
    coordinates: [  0.333333330000000,  0.666666670000000,  0.500000000000000 ]
    mass: 30.973762
    reduced_to: 2
  - symbol: Ba # 3
    coordinates: [  0.666666670000000,  0.333333330000000,  0.000000000000000 ]
    mass: 137.327000
    reduced_to: 3

supercell:
  lattice:
  - [    17.511723960000001,     0.000000000000000,     0.000000000000000 ] # a
  - [    -8.755862000000000,    15.165597800000000,     0.000000000000000 ] # b
  - [     0.000000000000000,     0.000000000000000,    13.368626670000001 ] # c
  points:
  - symbol: Li # 1
    coordinates: [  0.000000000000000,  0.000000000000000,  0.166666666666667 ]
    mass: 6.941000
    reduced_to: 1
  - symbol: Li # 2
    coordinates: [  0.250000000000000,  0.000000000000000,  0.166666666666667 ]
    mass: 6.941000
    reduced_to: 1
  - symbol: Li # 3
    coordinates: [  0.500000000000000,  0.000000000000000,  0.166666666666667 ]
    mass: 6.941000
    reduced_to: 1
  - symbol: Li # 4
    coordinates: [  0.750000000000000,  0.000000000000000,  0.166666666666667 ]
    mass: 6.941000
    reduced_to: 1
  - symbol: Li # 5
    coordinates: [  0.000000000000000,  0.250000000000000,  0.166666666666667 ]
    mass: 6.941000
    reduced_to: 1
  - symbol: Li # 6
    coordinates: [  0.250000000000000,  0.250000000000000,  0.166666666666667 ]
    mass: 6.941000
    reduced_to: 1
  - symbol: Li # 7
    coordinates: [  0.500000000000000,  0.250000000000000,  0.166666666666667 ]
    mass: 6.941000
    reduced_to: 1
  - symbol: Li # 8
    coordinates: [  0.750000000000000,  0.250000000000000,  0.166666666666667 ]
    mass: 6.941000
    reduced_to: 1
  - symbol: Li # 9
    coordinates: [  0.000000000000000,  0.500000000000000,  0.166666666666667 ]
    mass: 6.941000
    reduced_to: 1
  - symbol: Li # 10
    coordinates: [  0.250000000000000,  0.500000000000000,  0.166666666666667 ]
    mass: 6.941000
    reduced_to: 1
  - symbol: Li # 11
    coordinates: [  0.500000000000000,  0.500000000000000,  0.166666666666667 ]
    mass: 6.941000
    reduced_to: 1
  - symbol: Li # 12
    coordinates: [  0.750000000000000,  0.500000000000000,  0.166666666666667 ]
    mass: 6.941000
    reduced_to: 1
  - symbol: Li # 13
    coordinates: [  0.000000000000000,  0.750000000000000,  0.166666666666667 ]
    mass: 6.941000
    reduced_to: 1
  - symbol: Li # 14
    coordinates: [  0.250000000000000,  0.750000000000000,  0.166666666666667 ]
    mass: 6.941000
    reduced_to: 1
  - symbol: Li # 15
    coordinates: [  0.500000000000000,  0.750000000000000,  0.166666666666667 ]
    mass: 6.941000
    reduced_to: 1
  - symbol: Li # 16
    coordinates: [  0.750000000000000,  0.750000000000000,  0.166666666666667 ]
    mass: 6.941000
    reduced_to: 1
  - symbol: Li # 17
    coordinates: [  0.000000000000000,  0.000000000000000,  0.500000000000000 ]
    mass: 6.941000
    reduced_to: 1
  - symbol: Li # 18
    coordinates: [  0.250000000000000,  0.000000000000000,  0.500000000000000 ]
    mass: 6.941000
    reduced_to: 1
  - symbol: Li # 19
    coordinates: [  0.500000000000000,  0.000000000000000,  0.500000000000000 ]
    mass: 6.941000
    reduced_to: 1
  - symbol: Li # 20
    coordinates: [  0.750000000000000,  0.000000000000000,  0.500000000000000 ]
    mass: 6.941000
    reduced_to: 1
  - symbol: Li # 21
    coordinates: [  0.000000000000000,  0.250000000000000,  0.500000000000000 ]
    mass: 6.941000
    reduced_to: 1
  - symbol: Li # 22
    coordinates: [  0.250000000000000,  0.250000000000000,  0.500000000000000 ]
    mass: 6.941000
    reduced_to: 1
  - symbol: Li # 23
    coordinates: [  0.500000000000000,  0.250000000000000,  0.500000000000000 ]
    mass: 6.941000
    reduced_to: 1
  - symbol: Li # 24
    coordinates: [  0.750000000000000,  0.250000000000000,  0.500000000000000 ]
    mass: 6.941000
    reduced_to: 1
  - symbol: Li # 25
    coordinates: [  0.000000000000000,  0.500000000000000,  0.500000000000000 ]
    mass: 6.941000
    reduced_to: 1
  - symbol: Li # 26
    coordinates: [  0.250000000000000,  0.500000000000000,  0.500000000000000 ]
    mass: 6.941000
    reduced_to: 1
  - symbol: Li # 27
    coordinates: [  0.500000000000000,  0.500000000000000,  0.500000000000000 ]
    mass: 6.941000
    reduced_to: 1
  - symbol: Li # 28
    coordinates: [  0.750000000000000,  0.500000000000000,  0.500000000000000 ]
    mass: 6.941000
    reduced_to: 1
  - symbol: Li # 29
    coordinates: [  0.000000000000000,  0.750000000000000,  0.500000000000000 ]
    mass: 6.941000
    reduced_to: 1
  - symbol: Li # 30
    coordinates: [  0.250000000000000,  0.750000000000000,  0.500000000000000 ]
    mass: 6.941000
    reduced_to: 1
  - symbol: Li # 31
    coordinates: [  0.500000000000000,  0.750000000000000,  0.500000000000000 ]
    mass: 6.941000
    reduced_to: 1
  - symbol: Li # 32
    coordinates: [  0.750000000000000,  0.750000000000000,  0.500000000000000 ]
    mass: 6.941000
    reduced_to: 1
  - symbol: Li # 33
    coordinates: [  0.000000000000000,  0.000000000000000,  0.833333333333333 ]
    mass: 6.941000
    reduced_to: 1
  - symbol: Li # 34
    coordinates: [  0.250000000000000,  0.000000000000000,  0.833333333333333 ]
    mass: 6.941000
    reduced_to: 1
  - symbol: Li # 35
    coordinates: [  0.500000000000000,  0.000000000000000,  0.833333333333333 ]
    mass: 6.941000
    reduced_to: 1
  - symbol: Li # 36
    coordinates: [  0.750000000000000,  0.000000000000000,  0.833333333333333 ]
    mass: 6.941000
    reduced_to: 1
  - symbol: Li # 37
    coordinates: [  0.000000000000000,  0.250000000000000,  0.833333333333333 ]
    mass: 6.941000
    reduced_to: 1
  - symbol: Li # 38
    coordinates: [  0.250000000000000,  0.250000000000000,  0.833333333333333 ]
    mass: 6.941000
    reduced_to: 1
  - symbol: Li # 39
    coordinates: [  0.500000000000000,  0.250000000000000,  0.833333333333333 ]
    mass: 6.941000
    reduced_to: 1
  - symbol: Li # 40
    coordinates: [  0.750000000000000,  0.250000000000000,  0.833333333333333 ]
    mass: 6.941000
    reduced_to: 1
  - symbol: Li # 41
    coordinates: [  0.000000000000000,  0.500000000000000,  0.833333333333333 ]
    mass: 6.941000
    reduced_to: 1
  - symbol: Li # 42
    coordinates: [  0.250000000000000,  0.500000000000000,  0.833333333333333 ]
    mass: 6.941000
    reduced_to: 1
  - symbol: Li # 43
    coordinates: [  0.500000000000000,  0.500000000000000,  0.833333333333333 ]
    mass: 6.941000
    reduced_to: 1
  - symbol: Li # 44
    coordinates: [  0.750000000000000,  0.500000000000000,  0.833333333333333 ]
    mass: 6.941000
    reduced_to: 1
  - symbol: Li # 45
    coordinates: [  0.000000000000000,  0.750000000000000,  0.833333333333333 ]
    mass: 6.941000
    reduced_to: 1
  - symbol: Li # 46
    coordinates: [  0.250000000000000,  0.750000000000000,  0.833333333333333 ]
    mass: 6.941000
    reduced_to: 1
  - symbol: Li # 47
    coordinates: [  0.500000000000000,  0.750000000000000,  0.833333333333333 ]
    mass: 6.941000
    reduced_to: 1
  - symbol: Li # 48
    coordinates: [  0.750000000000000,  0.750000000000000,  0.833333333333333 ]
    mass: 6.941000
    reduced_to: 1
  - symbol: P  # 49
    coordinates: [  0.083333332500000,  0.166666667500000,  0.166666666666667 ]
    mass: 30.973762
    reduced_to: 49
  - symbol: P  # 50
    coordinates: [  0.333333332500000,  0.166666667500000,  0.166666666666667 ]
    mass: 30.973762
    reduced_to: 49
  - symbol: P  # 51
    coordinates: [  0.583333332500000,  0.166666667500000,  0.166666666666667 ]
    mass: 30.973762
    reduced_to: 49
  - symbol: P  # 52
    coordinates: [  0.833333332500000,  0.166666667500000,  0.166666666666667 ]
    mass: 30.973762
    reduced_to: 49
  - symbol: P  # 53
    coordinates: [  0.083333332500000,  0.416666667500000,  0.166666666666667 ]
    mass: 30.973762
    reduced_to: 49
  - symbol: P  # 54
    coordinates: [  0.333333332500000,  0.416666667500000,  0.166666666666667 ]
    mass: 30.973762
    reduced_to: 49
  - symbol: P  # 55
    coordinates: [  0.583333332500000,  0.416666667500000,  0.166666666666667 ]
    mass: 30.973762
    reduced_to: 49
  - symbol: P  # 56
    coordinates: [  0.833333332500000,  0.416666667500000,  0.166666666666667 ]
    mass: 30.973762
    reduced_to: 49
  - symbol: P  # 57
    coordinates: [  0.083333332500000,  0.666666667500000,  0.166666666666667 ]
    mass: 30.973762
    reduced_to: 49
  - symbol: P  # 58
    coordinates: [  0.333333332500000,  0.666666667500000,  0.166666666666667 ]
    mass: 30.973762
    reduced_to: 49
  - symbol: P  # 59
    coordinates: [  0.583333332500000,  0.666666667500000,  0.166666666666667 ]
    mass: 30.973762
    reduced_to: 49
  - symbol: P  # 60
    coordinates: [  0.833333332500000,  0.666666667500000,  0.166666666666667 ]
    mass: 30.973762
    reduced_to: 49
  - symbol: P  # 61
    coordinates: [  0.083333332500000,  0.916666667500000,  0.166666666666667 ]
    mass: 30.973762
    reduced_to: 49
  - symbol: P  # 62
    coordinates: [  0.333333332500000,  0.916666667500000,  0.166666666666667 ]
    mass: 30.973762
    reduced_to: 49
  - symbol: P  # 63
    coordinates: [  0.583333332500000,  0.916666667500000,  0.166666666666667 ]
    mass: 30.973762
    reduced_to: 49
  - symbol: P  # 64
    coordinates: [  0.833333332500000,  0.916666667500000,  0.166666666666667 ]
    mass: 30.973762
    reduced_to: 49
  - symbol: P  # 65
    coordinates: [  0.083333332500000,  0.166666667500000,  0.500000000000000 ]
    mass: 30.973762
    reduced_to: 49
  - symbol: P  # 66
    coordinates: [  0.333333332500000,  0.166666667500000,  0.500000000000000 ]
    mass: 30.973762
    reduced_to: 49
  - symbol: P  # 67
    coordinates: [  0.583333332500000,  0.166666667500000,  0.500000000000000 ]
    mass: 30.973762
    reduced_to: 49
  - symbol: P  # 68
    coordinates: [  0.833333332500000,  0.166666667500000,  0.500000000000000 ]
    mass: 30.973762
    reduced_to: 49
  - symbol: P  # 69
    coordinates: [  0.083333332500000,  0.416666667500000,  0.500000000000000 ]
    mass: 30.973762
    reduced_to: 49
  - symbol: P  # 70
    coordinates: [  0.333333332500000,  0.416666667500000,  0.500000000000000 ]
    mass: 30.973762
    reduced_to: 49
  - symbol: P  # 71
    coordinates: [  0.583333332500000,  0.416666667500000,  0.500000000000000 ]
    mass: 30.973762
    reduced_to: 49
  - symbol: P  # 72
    coordinates: [  0.833333332500000,  0.416666667500000,  0.500000000000000 ]
    mass: 30.973762
    reduced_to: 49
  - symbol: P  # 73
    coordinates: [  0.083333332500000,  0.666666667500000,  0.500000000000000 ]
    mass: 30.973762
    reduced_to: 49
  - symbol: P  # 74
    coordinates: [  0.333333332500000,  0.666666667500000,  0.500000000000000 ]
    mass: 30.973762
    reduced_to: 49
  - symbol: P  # 75
    coordinates: [  0.583333332500000,  0.666666667500000,  0.500000000000000 ]
    mass: 30.973762
    reduced_to: 49
  - symbol: P  # 76
    coordinates: [  0.833333332500000,  0.666666667500000,  0.500000000000000 ]
    mass: 30.973762
    reduced_to: 49
  - symbol: P  # 77
    coordinates: [  0.083333332500000,  0.916666667500000,  0.500000000000000 ]
    mass: 30.973762
    reduced_to: 49
  - symbol: P  # 78
    coordinates: [  0.333333332500000,  0.916666667500000,  0.500000000000000 ]
    mass: 30.973762
    reduced_to: 49
  - symbol: P  # 79
    coordinates: [  0.583333332500000,  0.916666667500000,  0.500000000000000 ]
    mass: 30.973762
    reduced_to: 49
  - symbol: P  # 80
    coordinates: [  0.833333332500000,  0.916666667500000,  0.500000000000000 ]
    mass: 30.973762
    reduced_to: 49
  - symbol: P  # 81
    coordinates: [  0.083333332500000,  0.166666667500000,  0.833333333333333 ]
    mass: 30.973762
    reduced_to: 49
  - symbol: P  # 82
    coordinates: [  0.333333332500000,  0.166666667500000,  0.833333333333333 ]
    mass: 30.973762
    reduced_to: 49
  - symbol: P  # 83
    coordinates: [  0.583333332500000,  0.166666667500000,  0.833333333333333 ]
    mass: 30.973762
    reduced_to: 49
  - symbol: P  # 84
    coordinates: [  0.833333332500000,  0.166666667500000,  0.833333333333333 ]
    mass: 30.973762
    reduced_to: 49
  - symbol: P  # 85
    coordinates: [  0.083333332500000,  0.416666667500000,  0.833333333333333 ]
    mass: 30.973762
    reduced_to: 49
  - symbol: P  # 86
    coordinates: [  0.333333332500000,  0.416666667500000,  0.833333333333333 ]
    mass: 30.973762
    reduced_to: 49
  - symbol: P  # 87
    coordinates: [  0.583333332500000,  0.416666667500000,  0.833333333333333 ]
    mass: 30.973762
    reduced_to: 49
  - symbol: P  # 88
    coordinates: [  0.833333332500000,  0.416666667500000,  0.833333333333333 ]
    mass: 30.973762
    reduced_to: 49
  - symbol: P  # 89
    coordinates: [  0.083333332500000,  0.666666667500000,  0.833333333333333 ]
    mass: 30.973762
    reduced_to: 49
  - symbol: P  # 90
    coordinates: [  0.333333332500000,  0.666666667500000,  0.833333333333333 ]
    mass: 30.973762
    reduced_to: 49
  - symbol: P  # 91
    coordinates: [  0.583333332500000,  0.666666667500000,  0.833333333333333 ]
    mass: 30.973762
    reduced_to: 49
  - symbol: P  # 92
    coordinates: [  0.833333332500000,  0.666666667500000,  0.833333333333333 ]
    mass: 30.973762
    reduced_to: 49
  - symbol: P  # 93
    coordinates: [  0.083333332500000,  0.916666667500000,  0.833333333333333 ]
    mass: 30.973762
    reduced_to: 49
  - symbol: P  # 94
    coordinates: [  0.333333332500000,  0.916666667500000,  0.833333333333333 ]
    mass: 30.973762
    reduced_to: 49
  - symbol: P  # 95
    coordinates: [  0.583333332500000,  0.916666667500000,  0.833333333333333 ]
    mass: 30.973762
    reduced_to: 49
  - symbol: P  # 96
    coordinates: [  0.833333332500000,  0.916666667500000,  0.833333333333333 ]
    mass: 30.973762
    reduced_to: 49
  - symbol: Ba # 97
    coordinates: [  0.166666667500000,  0.083333332500000,  0.000000000000000 ]
    mass: 137.327000
    reduced_to: 97
  - symbol: Ba # 98
    coordinates: [  0.416666667500000,  0.083333332500000,  0.000000000000000 ]
    mass: 137.327000
    reduced_to: 97
  - symbol: Ba # 99
    coordinates: [  0.666666667500000,  0.083333332500000,  0.000000000000000 ]
    mass: 137.327000
    reduced_to: 97
  - symbol: Ba # 100
    coordinates: [  0.916666667500000,  0.083333332500000,  0.000000000000000 ]
    mass: 137.327000
    reduced_to: 97
  - symbol: Ba # 101
    coordinates: [  0.166666667500000,  0.333333332500000,  0.000000000000000 ]
    mass: 137.327000
    reduced_to: 97
  - symbol: Ba # 102
    coordinates: [  0.416666667500000,  0.333333332500000,  0.000000000000000 ]
    mass: 137.327000
    reduced_to: 97
  - symbol: Ba # 103
    coordinates: [  0.666666667500000,  0.333333332500000,  0.000000000000000 ]
    mass: 137.327000
    reduced_to: 97
  - symbol: Ba # 104
    coordinates: [  0.916666667500000,  0.333333332500000,  0.000000000000000 ]
    mass: 137.327000
    reduced_to: 97
  - symbol: Ba # 105
    coordinates: [  0.166666667500000,  0.583333332500000,  0.000000000000000 ]
    mass: 137.327000
    reduced_to: 97
  - symbol: Ba # 106
    coordinates: [  0.416666667500000,  0.583333332500000,  0.000000000000000 ]
    mass: 137.327000
    reduced_to: 97
  - symbol: Ba # 107
    coordinates: [  0.666666667500000,  0.583333332500000,  0.000000000000000 ]
    mass: 137.327000
    reduced_to: 97
  - symbol: Ba # 108
    coordinates: [  0.916666667500000,  0.583333332500000,  0.000000000000000 ]
    mass: 137.327000
    reduced_to: 97
  - symbol: Ba # 109
    coordinates: [  0.166666667500000,  0.833333332500000,  0.000000000000000 ]
    mass: 137.327000
    reduced_to: 97
  - symbol: Ba # 110
    coordinates: [  0.416666667500000,  0.833333332500000,  0.000000000000000 ]
    mass: 137.327000
    reduced_to: 97
  - symbol: Ba # 111
    coordinates: [  0.666666667500000,  0.833333332500000,  0.000000000000000 ]
    mass: 137.327000
    reduced_to: 97
  - symbol: Ba # 112
    coordinates: [  0.916666667500000,  0.833333332500000,  0.000000000000000 ]
    mass: 137.327000
    reduced_to: 97
  - symbol: Ba # 113
    coordinates: [  0.166666667500000,  0.083333332500000,  0.333333333333333 ]
    mass: 137.327000
    reduced_to: 97
  - symbol: Ba # 114
    coordinates: [  0.416666667500000,  0.083333332500000,  0.333333333333333 ]
    mass: 137.327000
    reduced_to: 97
  - symbol: Ba # 115
    coordinates: [  0.666666667500000,  0.083333332500000,  0.333333333333333 ]
    mass: 137.327000
    reduced_to: 97
  - symbol: Ba # 116
    coordinates: [  0.916666667500000,  0.083333332500000,  0.333333333333333 ]
    mass: 137.327000
    reduced_to: 97
  - symbol: Ba # 117
    coordinates: [  0.166666667500000,  0.333333332500000,  0.333333333333333 ]
    mass: 137.327000
    reduced_to: 97
  - symbol: Ba # 118
    coordinates: [  0.416666667500000,  0.333333332500000,  0.333333333333333 ]
    mass: 137.327000
    reduced_to: 97
  - symbol: Ba # 119
    coordinates: [  0.666666667500000,  0.333333332500000,  0.333333333333333 ]
    mass: 137.327000
    reduced_to: 97
  - symbol: Ba # 120
    coordinates: [  0.916666667500000,  0.333333332500000,  0.333333333333333 ]
    mass: 137.327000
    reduced_to: 97
  - symbol: Ba # 121
    coordinates: [  0.166666667500000,  0.583333332500000,  0.333333333333333 ]
    mass: 137.327000
    reduced_to: 97
  - symbol: Ba # 122
    coordinates: [  0.416666667500000,  0.583333332500000,  0.333333333333333 ]
    mass: 137.327000
    reduced_to: 97
  - symbol: Ba # 123
    coordinates: [  0.666666667500000,  0.583333332500000,  0.333333333333333 ]
    mass: 137.327000
    reduced_to: 97
  - symbol: Ba # 124
    coordinates: [  0.916666667500000,  0.583333332500000,  0.333333333333333 ]
    mass: 137.327000
    reduced_to: 97
  - symbol: Ba # 125
    coordinates: [  0.166666667500000,  0.833333332500000,  0.333333333333333 ]
    mass: 137.327000
    reduced_to: 97
  - symbol: Ba # 126
    coordinates: [  0.416666667500000,  0.833333332500000,  0.333333333333333 ]
    mass: 137.327000
    reduced_to: 97
  - symbol: Ba # 127
    coordinates: [  0.666666667500000,  0.833333332500000,  0.333333333333333 ]
    mass: 137.327000
    reduced_to: 97
  - symbol: Ba # 128
    coordinates: [  0.916666667500000,  0.833333332500000,  0.333333333333333 ]
    mass: 137.327000
    reduced_to: 97
  - symbol: Ba # 129
    coordinates: [  0.166666667500000,  0.083333332500000,  0.666666666666667 ]
    mass: 137.327000
    reduced_to: 97
  - symbol: Ba # 130
    coordinates: [  0.416666667500000,  0.083333332500000,  0.666666666666667 ]
    mass: 137.327000
    reduced_to: 97
  - symbol: Ba # 131
    coordinates: [  0.666666667500000,  0.083333332500000,  0.666666666666667 ]
    mass: 137.327000
    reduced_to: 97
  - symbol: Ba # 132
    coordinates: [  0.916666667500000,  0.083333332500000,  0.666666666666667 ]
    mass: 137.327000
    reduced_to: 97
  - symbol: Ba # 133
    coordinates: [  0.166666667500000,  0.333333332500000,  0.666666666666667 ]
    mass: 137.327000
    reduced_to: 97
  - symbol: Ba # 134
    coordinates: [  0.416666667500000,  0.333333332500000,  0.666666666666667 ]
    mass: 137.327000
    reduced_to: 97
  - symbol: Ba # 135
    coordinates: [  0.666666667500000,  0.333333332500000,  0.666666666666667 ]
    mass: 137.327000
    reduced_to: 97
  - symbol: Ba # 136
    coordinates: [  0.916666667500000,  0.333333332500000,  0.666666666666667 ]
    mass: 137.327000
    reduced_to: 97
  - symbol: Ba # 137
    coordinates: [  0.166666667500000,  0.583333332500000,  0.666666666666667 ]
    mass: 137.327000
    reduced_to: 97
  - symbol: Ba # 138
    coordinates: [  0.416666667500000,  0.583333332500000,  0.666666666666667 ]
    mass: 137.327000
    reduced_to: 97
  - symbol: Ba # 139
    coordinates: [  0.666666667500000,  0.583333332500000,  0.666666666666667 ]
    mass: 137.327000
    reduced_to: 97
  - symbol: Ba # 140
    coordinates: [  0.916666667500000,  0.583333332500000,  0.666666666666667 ]
    mass: 137.327000
    reduced_to: 97
  - symbol: Ba # 141
    coordinates: [  0.166666667500000,  0.833333332500000,  0.666666666666667 ]
    mass: 137.327000
    reduced_to: 97
  - symbol: Ba # 142
    coordinates: [  0.416666667500000,  0.833333332500000,  0.666666666666667 ]
    mass: 137.327000
    reduced_to: 97
  - symbol: Ba # 143
    coordinates: [  0.666666667500000,  0.833333332500000,  0.666666666666667 ]
    mass: 137.327000
    reduced_to: 97
  - symbol: Ba # 144
    coordinates: [  0.916666667500000,  0.833333332500000,  0.666666666666667 ]
    mass: 137.327000
    reduced_to: 97
